
#(C) 2019 by FIZ Karlsruhe - Leibniz Institute for Information Infrastructure.  All rights reserved.
data_78252-ICSD
_database_code_ICSD 78252
_audit_creation_date 1995-10-17
_chemical_name_systematic 'Lanthanum strontium copper oxide (1.8/0.2/1/4)'
_chemical_formula_structural '(La1.75 Sr0.25) Cu O4'
_chemical_formula_sum 'Cu1 La1.75 O4 Sr0.25'
_chemical_name_structure_type K2MgF4
_exptl_crystal_density_diffrn 6.44
_cell_measurement_temperature 295.
_publ_section_title

;
Structural and superconducting properties of La2-x Srx Cu O4 as a function of
Sr content
;
loop_
_citation_id
_citation_journal_full
_citation_year
_citation_journal_volume
_citation_page_first
_citation_page_last
_citation_journal_id_ASTM
primary 'Physical Review B: Condensed Matter and Materials Physics' 1994 49 4163
4175 PRBMDO
loop_
_publ_author_name
'Radaelli, P.G.'
'Hinks, D.G.'
'Mitchell, A.W.'
'Hunter, B.A.'
'Wagner, J.L.'
'Dabrowski, B.'
'Vandervoort, K.G.'
'Viswanathan, H.K.'
'Jorgensen, J.D.'
_cell_length_a 5.3292(1)
_cell_length_b 5.3292(2)
_cell_length_c 14.2539(1)
_cell_angle_alpha 90.
_cell_angle_beta 90.
_cell_angle_gamma 90.
_cell_volume 404.82
_cell_formula_units_Z 4
_symmetry_space_group_name_H-M 'F 4/m m m'
_symmetry_Int_Tables_number 139
_refine_ls_R_factor_all 0.0415
loop_
_symmetry_equiv_pos_site_id
_symmetry_equiv_pos_as_xyz
1 'x, -y, -z'
2 'y, -x, -z'
3 'y, x, -z'
4 '-x, -y, -z'
5 '-x, y, -z'
6 '-y, x, -z'
7 '-y, -x, -z'
8 'x, y, -z'
9 'x, -y, z'
10 'y, -x, z'
11 'y, x, z'
12 '-x, -y, z'
13 '-x, y, z'
14 '-y, x, z'
15 '-y, -x, z'
16 'x, y, z'
17 'x, -y+1/2, -z+1/2'
18 'y, -x+1/2, -z+1/2'
19 'y, x+1/2, -z+1/2'
20 '-x, -y+1/2, -z+1/2'
21 '-x, y+1/2, -z+1/2'
22 '-y, x+1/2, -z+1/2'
23 '-y, -x+1/2, -z+1/2'
24 'x, y+1/2, -z+1/2'
25 'x, -y+1/2, z+1/2'
26 'y, -x+1/2, z+1/2'
27 'y, x+1/2, z+1/2'
28 '-x, -y+1/2, z+1/2'
29 '-x, y+1/2, z+1/2'
30 '-y, x+1/2, z+1/2'
31 '-y, -x+1/2, z+1/2'
32 'x, y+1/2, z+1/2'
33 'x+1/2, -y, -z+1/2'
34 'y+1/2, -x, -z+1/2'
35 'y+1/2, x, -z+1/2'
36 '-x+1/2, -y, -z+1/2'
37 '-x+1/2, y, -z+1/2'
38 '-y+1/2, x, -z+1/2'
39 '-y+1/2, -x, -z+1/2'
40 'x+1/2, y, -z+1/2'
41 'x+1/2, -y, z+1/2'
42 'y+1/2, -x, z+1/2'
43 'y+1/2, x, z+1/2'
44 '-x+1/2, -y, z+1/2'
45 '-x+1/2, y, z+1/2'
46 '-y+1/2, x, z+1/2'
47 '-y+1/2, -x, z+1/2'
48 'x+1/2, y, z+1/2'
49 'x+1/2, -y+1/2, -z'
50 'y+1/2, -x+1/2, -z'
51 'y+1/2, x+1/2, -z'
52 '-x+1/2, -y+1/2, -z'
53 '-x+1/2, y+1/2, -z'
54 '-y+1/2, x+1/2, -z'
55 '-y+1/2, -x+1/2, -z'
56 'x+1/2, y+1/2, -z'
57 'x+1/2, -y+1/2, z'
58 'y+1/2, -x+1/2, z'
59 'y+1/2, x+1/2, z'
60 '-x+1/2, -y+1/2, z'
61 '-x+1/2, y+1/2, z'
62 '-y+1/2, x+1/2, z'
63 '-y+1/2, -x+1/2, z'
64 'x+1/2, y+1/2, z'
loop_
_atom_type_symbol
_atom_type_oxidation_number
La3+ 3
Sr2+ 2
Cu2+ 2.25
O2- -2
loop_
_atom_site_label
_atom_site_type_symbol
_atom_site_symmetry_multiplicity
_atom_site_Wyckoff_symbol
_atom_site_fract_x
_atom_site_fract_y
_atom_site_fract_z
_atom_site_B_iso_or_equiv
_atom_site_occupancy
_atom_site_attached_hydrogens
La1 La3+ 8 e 0 0 0.3600(1) 0.38(10) 0.875 0
Sr1 Sr2+ 8 e 0 0 0.3600(1) 0.38(10) 0.125 0
Cu1 Cu2+ 4 a 0 0 0 0.26(8) 1. 0
O1 O2- 8 c 0.25 0.25 0 0.50(12) 1. 0
O2 O2- 8 e 0 0 0.1816(1) 1.13(7) 1. 0
#End of TTdata_78252-ICSD