
#(C) 2019 by FIZ Karlsruhe - Leibniz Institute for Information Infrastructure.  All rights reserved.
data_173892-ICSD
_database_code_ICSD 173892
_audit_creation_date 2010-02-01
_audit_update_record 2013-02-01
_chemical_name_systematic 'Dilanthanum copper tetraoxide'
_chemical_formula_structural 'La2 (Cu O4)'
_chemical_formula_sum 'Cu1 La2 O4'
_chemical_name_structure_type CuLa2O4(Fmmm)
_exptl_crystal_density_diffrn 7.1
_cell_measurement_temperature 10.
_publ_section_title

;
Superconducting phase of La2 Cu O(4-d): a superconducting composition
resulting from phase separation
;
loop_
_citation_id
_citation_journal_full
_citation_year
_citation_journal_volume
_citation_page_first
_citation_page_last
_citation_journal_id_ASTM
primary 'Physical Review B: Condensed Matter and Materials Physics' 1988 38
11337 11345 PRBMDO
loop_
_publ_author_name
'Jorgensen, J.D.'
'Dabrowski, B.'
'Shiyou Pei'
'Hinks, D.G.'
'Soderholm, L.'
'Morosin, B.'
'Schirber, J.E.'
'Venturini, E.L.'
'Ginley, D.S.'
_cell_length_a 5.3346(3)
_cell_length_b 5.3969(3)
_cell_length_c 13.1646(7)
_cell_angle_alpha 90.
_cell_angle_beta 90.
_cell_angle_gamma 90.
_cell_volume 379.01
_cell_formula_units_Z 4
_symmetry_space_group_name_H-M 'F m m m'
_symmetry_Int_Tables_number 69
_refine_ls_R_factor_all 0.0412
loop_
_symmetry_equiv_pos_site_id
_symmetry_equiv_pos_as_xyz
1 'x, y, -z'
2 'x, -y, z'
3 '-x, y, z'
4 '-x, -y, -z'
5 '-x, -y, z'
6 '-x, y, -z'
7 'x, -y, -z'
8 'x, y, z'
9 'x, y+1/2, -z+1/2'
10 'x, -y+1/2, z+1/2'
11 '-x, y+1/2, z+1/2'
12 '-x, -y+1/2, -z+1/2'
13 '-x, -y+1/2, z+1/2'
14 '-x, y+1/2, -z+1/2'
15 'x, -y+1/2, -z+1/2'
16 'x, y+1/2, z+1/2'
17 'x+1/2, y, -z+1/2'
18 'x+1/2, -y, z+1/2'
19 '-x+1/2, y, z+1/2'
20 '-x+1/2, -y, -z+1/2'
21 '-x+1/2, -y, z+1/2'
22 '-x+1/2, y, -z+1/2'
23 'x+1/2, -y, -z+1/2'
24 'x+1/2, y, z+1/2'
25 'x+1/2, y+1/2, -z'
26 'x+1/2, -y+1/2, z'
27 '-x+1/2, y+1/2, z'
28 '-x+1/2, -y+1/2, -z'
29 '-x+1/2, -y+1/2, z'
30 '-x+1/2, y+1/2, -z'
31 'x+1/2, -y+1/2, -z'
32 'x+1/2, y+1/2, z'
loop_
_atom_type_symbol
_atom_type_oxidation_number
La3+ 3
Cu2+ 2
O2- -2
loop_
_atom_site_label
_atom_site_type_symbol
_atom_site_symmetry_multiplicity
_atom_site_Wyckoff_symbol
_atom_site_fract_x
_atom_site_fract_y
_atom_site_fract_z
_atom_site_B_iso_or_equiv
_atom_site_occupancy
_atom_site_attached_hydrogens
La1 La3+ 8 i 0 0 0.3601(3) 0.38(10) 1. 0
Cu1 Cu2+ 4 a 0 0 0 0.10(11) 1. 0
O1 O2- 8 e 0.25 0.25 0 0.82(12) 1. 0
O2 O2- 8 i 0 0 0.1845(6) 1.93(13) 1. 0
#End of TTdata_173892-ICSD