
#(C) 2019 by FIZ Karlsruhe - Leibniz Institute for Information Infrastructure.  All rights reserved.
data_65849-ICSD
_database_code_ICSD 65849
_audit_creation_date 1990-12-27
_chemical_name_systematic
'Lanthanum strontium copper cobalt oxide (1.8/.2/.97/.03/4)'
_chemical_formula_structural 'La1.8 Sr.2 Cu.975 Co.025 O4'
_chemical_formula_sum 'Co0.025 Cu0.975 La1.8 O4 Sr0.2'
_chemical_name_structure_type K2MgF4
_exptl_crystal_density_diffrn 6.95
_cell_measurement_temperature 300.
_publ_section_title

;
Structural changes in superconducting La1.8 Sr.2 Cu O4 by alloying copper with
cobalt
;
loop_
_citation_id
_citation_journal_full
_citation_year
_citation_journal_volume
_citation_page_first
_citation_page_last
_citation_journal_id_ASTM
primary 'Physica B: Condensed Matter (Amsterdam, Netherlands)' 1989 156 893 896
PHYBE3
loop_
_publ_author_name
'Hohlwein, D.'
'Hoser, A.'
'Sonntag, R.'
'Prandl, W.'
'Schaefer, W.'
'Kiemel, R.'
'Kemmler-Sack, S.'
'Hewat, A.W.'
_cell_length_a 3.77664(2)
_cell_length_b 3.77664(2)
_cell_length_c 13.2386(1)
_cell_angle_alpha 90.
_cell_angle_beta 90.
_cell_angle_gamma 90.
_cell_volume 188.82
_cell_formula_units_Z 2
_symmetry_space_group_name_H-M 'I 4/m m m'
_symmetry_Int_Tables_number 139
_refine_ls_R_factor_all 0.097
loop_
_symmetry_equiv_pos_site_id
_symmetry_equiv_pos_as_xyz
1 'y, x, -z'
2 '-y, -x, -z'
3 '-y, x, -z'
4 'y, -x, -z'
5 '-x, y, -z'
6 'x, -y, -z'
7 'x, y, -z'
8 '-x, -y, -z'
9 '-y, -x, z'
10 'y, x, z'
11 'y, -x, z'
12 '-y, x, z'
13 'x, -y, z'
14 '-x, y, z'
15 '-x, -y, z'
16 'x, y, z'
17 'y+1/2, x+1/2, -z+1/2'
18 '-y+1/2, -x+1/2, -z+1/2'
19 '-y+1/2, x+1/2, -z+1/2'
20 'y+1/2, -x+1/2, -z+1/2'
21 '-x+1/2, y+1/2, -z+1/2'
22 'x+1/2, -y+1/2, -z+1/2'
23 'x+1/2, y+1/2, -z+1/2'
24 '-x+1/2, -y+1/2, -z+1/2'
25 '-y+1/2, -x+1/2, z+1/2'
26 'y+1/2, x+1/2, z+1/2'
27 'y+1/2, -x+1/2, z+1/2'
28 '-y+1/2, x+1/2, z+1/2'
29 'x+1/2, -y+1/2, z+1/2'
30 '-x+1/2, y+1/2, z+1/2'
31 '-x+1/2, -y+1/2, z+1/2'
32 'x+1/2, y+1/2, z+1/2'
loop_
_atom_type_symbol
_atom_type_oxidation_number
La3+ 3
Sr2+ 2
Cu2+ 2
Co2+ 2
O2- -2
loop_
_atom_site_label
_atom_site_type_symbol
_atom_site_symmetry_multiplicity
_atom_site_Wyckoff_symbol
_atom_site_fract_x
_atom_site_fract_y
_atom_site_fract_z
_atom_site_B_iso_or_equiv
_atom_site_occupancy
_atom_site_attached_hydrogens
La1 La3+ 4 e 0 0 0.3605(1) . 0.9 0
Sr1 Sr2+ 4 e 0 0 0.3605(1) . 0.1 0
Cu1 Cu2+ 2 a 0 0 0 . 0.975 0
Co1 Co2+ 2 a 0 0 0 . 0.025 0
O1 O2- 4 c 0 0.5 0 . 1. 0
O2 O2- 4 e 0 0 0.1813(1) . 1. 0
loop_
_atom_site_aniso_label
_atom_site_aniso_type_symbol
_atom_site_aniso_B_11
_atom_site_aniso_B_22
_atom_site_aniso_B_33
_atom_site_aniso_B_12
_atom_site_aniso_B_13
_atom_site_aniso_B_23
La1 La3+ 0.61(2) 0.61(2) 0.54(3) 0 0 0
Sr1 Sr2+ 0.61(2) 0.61(2) 0.54(3) 0 0 0
Cu1 Cu2+ 0.33(2) 0.33(2) 0.87(5) 0 0 0
Co1 Co2+ 0.33(2) 0.33(2) 0.87(5) 0 0 0
O1 O2- 0.71(3) 0.45(3) 1.29(5) 0 0 0
O2 O2- 1.62(3) 1.62(3) 0.89(5) 0 0 0
#End of TTdata_65849-ICSD