
#(C) 2019 by FIZ Karlsruhe - Leibniz Institute for Information Infrastructure.  All rights reserved.
data_65873-ICSD
_database_code_ICSD 65873
_audit_creation_date 1990-12-27
_audit_update_record 2012-08-01
_chemical_name_systematic 'Lanthanum sodium copper oxide (1.9/.1/1/4)'
_chemical_formula_structural 'La1.94 Na.06 Cu O4'
_chemical_formula_sum 'Cu1 La1.94 Na0.06 O4'
_chemical_name_structure_type K2MgF4
_exptl_crystal_density_diffrn 7.02
_publ_section_title

;
Alkali-metal substituted La2 Cu O4: Structures of La2-x Mx Cu O4 (M= Na, K: x
ca. 0.2)
;
loop_
_citation_id
_citation_journal_full
_citation_year
_citation_journal_volume
_citation_page_first
_citation_page_last
_citation_journal_id_ASTM
primary
'Physica C: Superconductivity and Ist Application (Amsterdam, Netherlands)' 1989 158 465 470 PHYCE6
loop_
_publ_author_name
'Torardi, C.C.'
'Subramanian, M.A.'
'Gopalakrishnan, J.'
'Sleight, A.W.'
_cell_length_a 3.7796(1)
_cell_length_b 3.7796(1)
_cell_length_c 13.1871(4)
_cell_angle_alpha 90.
_cell_angle_beta 90.
_cell_angle_gamma 90.
_cell_volume 188.38
_cell_formula_units_Z 2
_symmetry_space_group_name_H-M 'I 4/m m m'
_symmetry_Int_Tables_number 139
_refine_ls_R_factor_all 0.057
loop_
_symmetry_equiv_pos_site_id
_symmetry_equiv_pos_as_xyz
1 'y, x, -z'
2 '-y, -x, -z'
3 '-y, x, -z'
4 'y, -x, -z'
5 '-x, y, -z'
6 'x, -y, -z'
7 'x, y, -z'
8 '-x, -y, -z'
9 '-y, -x, z'
10 'y, x, z'
11 'y, -x, z'
12 '-y, x, z'
13 'x, -y, z'
14 '-x, y, z'
15 '-x, -y, z'
16 'x, y, z'
17 'y+1/2, x+1/2, -z+1/2'
18 '-y+1/2, -x+1/2, -z+1/2'
19 '-y+1/2, x+1/2, -z+1/2'
20 'y+1/2, -x+1/2, -z+1/2'
21 '-x+1/2, y+1/2, -z+1/2'
22 'x+1/2, -y+1/2, -z+1/2'
23 'x+1/2, y+1/2, -z+1/2'
24 '-x+1/2, -y+1/2, -z+1/2'
25 '-y+1/2, -x+1/2, z+1/2'
26 'y+1/2, x+1/2, z+1/2'
27 'y+1/2, -x+1/2, z+1/2'
28 '-y+1/2, x+1/2, z+1/2'
29 'x+1/2, -y+1/2, z+1/2'
30 '-x+1/2, y+1/2, z+1/2'
31 '-x+1/2, -y+1/2, z+1/2'
32 'x+1/2, y+1/2, z+1/2'
loop_
_atom_type_symbol
_atom_type_oxidation_number
La3+ 3
Na1+ 1
Cu2+ 2.12
O2- -2
loop_
_atom_site_label
_atom_site_type_symbol
_atom_site_symmetry_multiplicity
_atom_site_Wyckoff_symbol
_atom_site_fract_x
_atom_site_fract_y
_atom_site_fract_z
_atom_site_B_iso_or_equiv
_atom_site_occupancy
_atom_site_attached_hydrogens
La1 La3+ 4 e 0 0 0.3608(2) 0.6(1) 0.97(2) 0
Na1 Na1+ 4 e 0 0 0.3608(2) 0.6(1) 0.03(2) 0
Cu1 Cu2+ 2 a 0 0 0 0.3(1) 1. 0
O1 O2- 4 c 0 0.5 0 0.8(1) 1. 0
O2 O2- 4 e 0 0 0.1830(2) . 1. 0
loop_
_atom_site_aniso_label
_atom_site_aniso_type_symbol
_atom_site_aniso_U_11
_atom_site_aniso_U_22
_atom_site_aniso_U_33
_atom_site_aniso_U_12
_atom_site_aniso_U_13
_atom_site_aniso_U_23
O2 O2- 2.0(1) 2.0(1) 0.1(2) 0 0 0
#End of TTdata_65873-ICSD