
#(C) 2019 by FIZ Karlsruhe - Leibniz Institute for Information Infrastructure.  All rights reserved.
data_67836-ICSD
_database_code_ICSD 67836
_audit_creation_date 1995-01-10
_audit_update_record 2006-04-01
_chemical_name_systematic 'Dilanthanum cuprate'
_chemical_formula_structural 'La2 (Cu O4)'
_chemical_formula_sum 'Cu1 La2 O4'
_chemical_name_structure_type CuLa2O4
_exptl_crystal_density_diffrn 7.07
_publ_section_title
'Room temperature lithium reduction of La2MO4+delta (M = Cu, Ni)'
loop_
_citation_id
_citation_journal_full
_citation_year
_citation_journal_volume
_citation_page_first
_citation_page_last
_citation_journal_id_ASTM
primary 'Solid State Ionics' 1993 63 907 914 SSIOD3
loop_
_publ_author_name
'Rial, C.'
'Amador, U.'
'Varez, A.'
'Moran, E.'
'Alario-Franco, M.A.'
'Gonzalez, A.'
'Pingarron, J.M.'
_cell_length_a 5.3565(3)
_cell_length_b 13.1417(7)
_cell_length_c 5.4076(3)
_cell_angle_alpha 90.
_cell_angle_beta 90.
_cell_angle_gamma 90.
_cell_volume 380.66
_cell_formula_units_Z 4
_symmetry_space_group_name_H-M 'C m c a'
_symmetry_Int_Tables_number 64
_refine_ls_R_factor_all 0.059
loop_
_symmetry_equiv_pos_site_id
_symmetry_equiv_pos_as_xyz
1 '-x, -y+1/2, z+1/2'
2 '-x, y+1/2, -z+1/2'
3 '-x, y, z'
4 '-x, -y, -z'
5 'x, y+1/2, -z+1/2'
6 'x, -y+1/2, z+1/2'
7 'x, -y, -z'
8 'x, y, z'
9 '-x+1/2, -y, z+1/2'
10 '-x+1/2, y, -z+1/2'
11 '-x+1/2, y+1/2, z'
12 '-x+1/2, -y+1/2, -z'
13 'x+1/2, y, -z+1/2'
14 'x+1/2, -y, z+1/2'
15 'x+1/2, -y+1/2, -z'
16 'x+1/2, y+1/2, z'
loop_
_atom_type_symbol
_atom_type_oxidation_number
La3+ 3
Cu2+ 2
O2- -2
loop_
_atom_site_label
_atom_site_type_symbol
_atom_site_symmetry_multiplicity
_atom_site_Wyckoff_symbol
_atom_site_fract_x
_atom_site_fract_y
_atom_site_fract_z
_atom_site_B_iso_or_equiv
_atom_site_occupancy
_atom_site_attached_hydrogens
La1 La3+ 8 f 0 0.3613 0.0088 . 1. 0
Cu1 Cu2+ 4 a 0 0 0 . 1. 0
O1 O2- 8 f 0 0.1852 0.0061 . 1. 0
O2 O2- 8 e 0.25 -.0002 0.75 . 1. 0
#End of TTdata_67836-ICSD