
#(C) 2019 by FIZ Karlsruhe - Leibniz Institute for Information Infrastructure.  All rights reserved.
data_68039-ICSD
_database_code_ICSD 68039
_audit_creation_date 1990-12-27
_chemical_name_systematic 'Lanthanum strontium copper oxide (1.85/.15/1/4)'
_chemical_formula_structural '(La0.925 Sr0.075)2 Cu O4'
_chemical_formula_sum 'Cu1 La1.85 O4 Sr0.15'
_chemical_name_structure_type K2MgF4
_exptl_crystal_density_diffrn 6.96
_publ_section_title
'Crystal Structures of (La(1-x)Mx)2 Cu O4-delta(M=Sr and Ba)'
loop_
_citation_id
_citation_journal_full
_citation_year
_citation_journal_volume
_citation_page_first
_citation_page_last
_citation_journal_id_ASTM
primary 'Japanese Journal of Applied Physics, Part 2: Letters & Express Letters'
1987 26 363 365 JAPLD8
loop_
_publ_author_name
'Onoda, M.'
'Shamoto, S.'
'Sato, M.'
'Hosoya, S.'
_cell_length_a 3.787(1)
_cell_length_b 3.787(1)
_cell_length_c 13.225(4)
_cell_angle_alpha 90.
_cell_angle_beta 90.
_cell_angle_gamma 90.
_cell_volume 189.66
_cell_formula_units_Z 2
_symmetry_space_group_name_H-M 'I 4/m m m'
_symmetry_Int_Tables_number 139
_refine_ls_R_factor_all 0.026
loop_
_symmetry_equiv_pos_site_id
_symmetry_equiv_pos_as_xyz
1 'y, x, -z'
2 '-y, -x, -z'
3 '-y, x, -z'
4 'y, -x, -z'
5 '-x, y, -z'
6 'x, -y, -z'
7 'x, y, -z'
8 '-x, -y, -z'
9 '-y, -x, z'
10 'y, x, z'
11 'y, -x, z'
12 '-y, x, z'
13 'x, -y, z'
14 '-x, y, z'
15 '-x, -y, z'
16 'x, y, z'
17 'y+1/2, x+1/2, -z+1/2'
18 '-y+1/2, -x+1/2, -z+1/2'
19 '-y+1/2, x+1/2, -z+1/2'
20 'y+1/2, -x+1/2, -z+1/2'
21 '-x+1/2, y+1/2, -z+1/2'
22 'x+1/2, -y+1/2, -z+1/2'
23 'x+1/2, y+1/2, -z+1/2'
24 '-x+1/2, -y+1/2, -z+1/2'
25 '-y+1/2, -x+1/2, z+1/2'
26 'y+1/2, x+1/2, z+1/2'
27 'y+1/2, -x+1/2, z+1/2'
28 '-y+1/2, x+1/2, z+1/2'
29 'x+1/2, -y+1/2, z+1/2'
30 '-x+1/2, y+1/2, z+1/2'
31 '-x+1/2, -y+1/2, z+1/2'
32 'x+1/2, y+1/2, z+1/2'
loop_
_atom_type_symbol
_atom_type_oxidation_number
La3+ 3
Sr2+ 2
Cu2+ 2.15
O2- -2
loop_
_atom_site_label
_atom_site_type_symbol
_atom_site_symmetry_multiplicity
_atom_site_Wyckoff_symbol
_atom_site_fract_x
_atom_site_fract_y
_atom_site_fract_z
_atom_site_B_iso_or_equiv
_atom_site_occupancy
_atom_site_attached_hydrogens
La1 La3+ 4 e 0 0 0.36074(2) 0.55(1) 0.925 0
Sr1 Sr2+ 4 e 0 0 0.36074(2) 0.55(1) 0.075 0
Cu1 Cu2+ 2 a 0 0 0 0.46(1) 1. 0
O1 O2- 4 c 0 0.5 0 0.71(8) 1. 0
O2 O2- 4 e 0 0 0.18235(43) 1.31(8) 1. 0
#End of TTdata_68039-ICSD