
#(C) 2019 by FIZ Karlsruhe - Leibniz Institute for Information Infrastructure.  All rights reserved.
data_74150-ICSD
_database_code_ICSD 74150
_audit_creation_date 1995-01-10
_audit_update_record 2006-04-01
_chemical_name_systematic 'Dilanthanum cuprate'
_chemical_formula_structural 'La2 (Cu O4)'
_chemical_formula_sum 'Cu1 La2 O4'
_chemical_name_structure_type CuLa2O4
_exptl_crystal_density_diffrn 6.95
_cell_measurement_temperature 300.
_publ_section_title

;
Neutron-diffraction study of anisotropy of crystal-lattice expansion in La2-x
Srx Cu O4 under doping with Sr and radiation-induced disorder
;
loop_
_citation_id
_citation_journal_full
_citation_year
_citation_journal_volume
_citation_page_first
_citation_page_last
_citation_journal_id_ASTM
primary
'Physica C: Superconductivity and Ist Application (Amsterdam, Netherlands)' 1993 218 407 416 PHYCE6
loop_
_publ_author_name
'Voronin, V.I.'
'Mirmelstein, A.'
'Kozhevnikov, V.'
'Goshchitskii, B.'
_cell_length_a 5.4064(2)
_cell_length_b 13.2167(2)
_cell_length_c 5.4214(2)
_cell_angle_alpha 90.
_cell_angle_beta 90.
_cell_angle_gamma 90.
_cell_volume 387.38
_cell_formula_units_Z 4
_symmetry_space_group_name_H-M 'C m c a'
_symmetry_Int_Tables_number 64
_refine_ls_R_factor_all 0.069
loop_
_symmetry_equiv_pos_site_id
_symmetry_equiv_pos_as_xyz
1 '-x, -y+1/2, z+1/2'
2 '-x, y+1/2, -z+1/2'
3 '-x, y, z'
4 '-x, -y, -z'
5 'x, y+1/2, -z+1/2'
6 'x, -y+1/2, z+1/2'
7 'x, -y, -z'
8 'x, y, z'
9 '-x+1/2, -y, z+1/2'
10 '-x+1/2, y, -z+1/2'
11 '-x+1/2, y+1/2, z'
12 '-x+1/2, -y+1/2, -z'
13 'x+1/2, y, -z+1/2'
14 'x+1/2, -y, z+1/2'
15 'x+1/2, -y+1/2, -z'
16 'x+1/2, y+1/2, z'
loop_
_atom_type_symbol
_atom_type_oxidation_number
La3+ 3
Cu2+ 2
O2- -2
loop_
_atom_site_label
_atom_site_type_symbol
_atom_site_symmetry_multiplicity
_atom_site_Wyckoff_symbol
_atom_site_fract_x
_atom_site_fract_y
_atom_site_fract_z
_atom_site_B_iso_or_equiv
_atom_site_occupancy
_atom_site_attached_hydrogens
La1 La3+ 8 f 0 0.3596(3) 0.0065(9) . 1. 0
Cu1 Cu2+ 4 a 0 0 0 . 1. 0
O1 O2- 8 e 0.25 0.0027(4) 0.25 . 1. 0
O2 O2- 8 f 0 0.1844(4) 0.9829(4) . 1. 0
loop_
_atom_site_aniso_label
_atom_site_aniso_type_symbol
_atom_site_aniso_U_11
_atom_site_aniso_U_22
_atom_site_aniso_U_33
_atom_site_aniso_U_12
_atom_site_aniso_U_13
_atom_site_aniso_U_23
La1 La3+ 0.153(10) 0.144(10) 0.094(8) 0 0 0
Cu1 Cu2+ 0.158(9) 0.153(11) 0.122(9) 0 0 0
O1 O2- 0.043(6) 0.141(7) 0.090(8) 0 0 0
O2 O2- 0.238(21) 0.240(26) 0.100(17) 0 0 0
#End of TTdata_74150-ICSD