
#(C) 2019 by FIZ Karlsruhe - Leibniz Institute for Information Infrastructure.  All rights reserved.
data_75780-ICSD
_database_code_ICSD 75780
_audit_creation_date 1996-04-22
_chemical_name_systematic 'Lanthanum rubidium copper oxide (1.95/0.06/1/4)'
_chemical_formula_structural '(La1.945 Rb0.055) Cu O4'
_chemical_formula_sum 'Cu1 La1.945 O4 Rb0.055'
_chemical_name_structure_type K2MgF4
_exptl_crystal_density_diffrn 7.02
_cell_measurement_temperature 298.
_publ_section_title

;
Synthesis, single-crystal structure, and superconductivity of the
rubidium-substituted La2 Cu O4
;
loop_
_citation_id
_citation_journal_full
_citation_year
_citation_journal_volume
_citation_page_first
_citation_page_last
_citation_journal_id_ASTM
primary
'Physica C: Superconductivity and Ist Application (Amsterdam, Netherlands)' 1994 226 353 359 PHYCE6
loop_
_publ_author_name
'Keane, P.M.'
'Hinks, D.G.'
'Geiser, U.'
'Williams, J.M.'
_cell_length_a 3.7858(6)
_cell_length_b 3.7858(6)
_cell_length_c 13.2759(26)
_cell_angle_alpha 90.
_cell_angle_beta 90.
_cell_angle_gamma 90.
_cell_volume 190.27
_cell_formula_units_Z 2
_symmetry_space_group_name_H-M 'I 4/m m m'
_symmetry_Int_Tables_number 139
_refine_ls_R_factor_all 0.031
loop_
_symmetry_equiv_pos_site_id
_symmetry_equiv_pos_as_xyz
1 'y, x, -z'
2 '-y, -x, -z'
3 '-y, x, -z'
4 'y, -x, -z'
5 '-x, y, -z'
6 'x, -y, -z'
7 'x, y, -z'
8 '-x, -y, -z'
9 '-y, -x, z'
10 'y, x, z'
11 'y, -x, z'
12 '-y, x, z'
13 'x, -y, z'
14 '-x, y, z'
15 '-x, -y, z'
16 'x, y, z'
17 'y+1/2, x+1/2, -z+1/2'
18 '-y+1/2, -x+1/2, -z+1/2'
19 '-y+1/2, x+1/2, -z+1/2'
20 'y+1/2, -x+1/2, -z+1/2'
21 '-x+1/2, y+1/2, -z+1/2'
22 'x+1/2, -y+1/2, -z+1/2'
23 'x+1/2, y+1/2, -z+1/2'
24 '-x+1/2, -y+1/2, -z+1/2'
25 '-y+1/2, -x+1/2, z+1/2'
26 'y+1/2, x+1/2, z+1/2'
27 'y+1/2, -x+1/2, z+1/2'
28 '-y+1/2, x+1/2, z+1/2'
29 'x+1/2, -y+1/2, z+1/2'
30 '-x+1/2, y+1/2, z+1/2'
31 '-x+1/2, -y+1/2, z+1/2'
32 'x+1/2, y+1/2, z+1/2'
loop_
_atom_type_symbol
_atom_type_oxidation_number
Cu2+ 2.11
La3+ 3
Rb1+ 1
O2- -2
loop_
_atom_site_label
_atom_site_type_symbol
_atom_site_symmetry_multiplicity
_atom_site_Wyckoff_symbol
_atom_site_fract_x
_atom_site_fract_y
_atom_site_fract_z
_atom_site_B_iso_or_equiv
_atom_site_occupancy
_atom_site_attached_hydrogens
Cu1 Cu2+ 2 a 0 0 0 . 1. 0
La1 La3+ 4 e 0 0 0.36026(3) . 0.9725 0
Rb1 Rb1+ 4 e 0 0 0.36026(3) . 0.0275 0
O1 O2- 4 c 0 0.5 0 . 1. 0
O2 O2- 4 e 0 0 0.1840(6) . 1. 0
loop_
_atom_site_aniso_label
_atom_site_aniso_type_symbol
_atom_site_aniso_U_11
_atom_site_aniso_U_22
_atom_site_aniso_U_33
_atom_site_aniso_U_12
_atom_site_aniso_U_13
_atom_site_aniso_U_23
Cu1 Cu2+ 0.0045(4) 0.0045(4) 0.0116(5) 0 0 0
La1 La3+ 0.0072(2) 0.0072(2) 0.0078(3) 0 0 0
Rb1 Rb1+ 0.0072(2) 0.0072(2) 0.0078(3) 0 0 0
O1 O2- 0.0066(22) 0.0010(18) 0.0269(26) 0 0 0
O2 O2- 0.0315(32) 0.0315(32) 0.0113(27) 0 0 0
#End of TTdata_75780-ICSD